<?xml version="1.0" encoding="UTF-8"?>

<!-- generated on 2025-04-30 21:53:20 by 
<Configuration xmlns:xsi="http://www.w3.org/2001/XMLSchema-instance" xsi:noNamespaceSchemaLocation="http://sumo.dlr.de/xsd/Configuration.xsd">

    <input>
        <net-file value="swansea/swansea.net.xml"/>
        <route-files value="swansea/routes.rou.xml"/>
        <additional-files value="swansea/vtypes.add.xml"/>
    </input>

    <output>
        <tripinfo-output value="swansea/tripinfos.xml"/>
    </output>

    <report>
        <log value="swansea/sumo_log.txt"/>
        <no-step-log value="true"/>
    </report>

    <gui_only>
        <gui-settings-file value="swansea/settings.gui.xml"/>
    </gui_only>

</Configuration>
-->

<tripinfos xmlns:xsi="http://www.w3.org/2001/XMLSchema-instance" xsi:noNamespaceSchemaLocation="http://sumo.dlr.de/xsd/tripinfo_file.xsd">
    <tripinfo id="25" depart="25.00" departLane="-957264362#2_0" departPos="0.20" departSpeed="0.00" departDelay="0.00" arrival="36.00" arrivalLane="-23029167#1_0" arrivalPos="37.71" arrivalSpeed="13.34" duration="11.00" routeLength="102.99" waitingTime="0.00" waitingCount="0" stopTime="0.00" timeLoss="2.41" rerouteNo="0" devices="tripinfo_25" vType="autonomous1" speedFactor="0.99" vaporized=""/>
    <tripinfo id="39" depart="39.00" departLane="-27390599#2_0" departPos="5.10" departSpeed="0.00" departDelay="0.00" arrival="56.00" arrivalLane="-27390597#3_0" arrivalPos="15.12" arrivalSpeed="14.21" duration="17.00" routeLength="169.44" waitingTime="0.00" waitingCount="0" stopTime="0.00" timeLoss="4.22" rerouteNo="0" devices="tripinfo_39" vType="autonomous1" speedFactor="1.06" vaporized=""/>
    <tripinfo id="2" depart="2.00" departLane="23583312#1_0" departPos="5.10" departSpeed="0.00" departDelay="0.00" arrival="65.00" arrivalLane="22885401#1_0" arrivalPos="149.47" arrivalSpeed="15.89" duration="63.00" routeLength="757.95" waitingTime="0.00" waitingCount="0" stopTime="0.00" timeLoss="18.71" rerouteNo="0" devices="tripinfo_2" vType="autonomous1" speedFactor="1.20" vaporized=""/>
    <tripinfo id="79" depart="79.00" departLane="-23160026#4_0" departPos="5.10" departSpeed="0.00" departDelay="0.00" arrival="83.00" arrivalLane="-23160026#3_0" arrivalPos="0.20" arrivalSpeed="8.55" duration="4.00" routeLength="20.26" waitingTime="0.00" waitingCount="0" stopTime="0.00" timeLoss="2.63" rerouteNo="0" devices="tripinfo_79" vType="autonomous1" speedFactor="1.14" vaporized=""/>
    <tripinfo id="48" depart="48.00" departLane="957264361#0_0" departPos="0.20" departSpeed="0.00" departDelay="0.00" arrival="86.00" arrivalLane="14029231_0" arrivalPos="11.00" arrivalSpeed="13.03" duration="38.00" routeLength="449.42" waitingTime="0.00" waitingCount="0" stopTime="0.00" timeLoss="13.94" rerouteNo="0" devices="tripinfo_48" vType="autonomous1" speedFactor="1.12" vaporized=""/>
    <tripinfo id="6" depart="6.00" departLane="-123699344#1_0" departPos="5.10" departSpeed="0.00" departDelay="0.00" arrival="99.00" arrivalLane="-22963000#0_0" arrivalPos="36.10" arrivalSpeed="13.62" duration="93.00" routeLength="969.98" waitingTime="0.00" waitingCount="0" stopTime="0.00" timeLoss="17.38" rerouteNo="0" devices="tripinfo_6" vType="autonomous1" speedFactor="1.02" vaporized=""/>
    <tripinfo id="70" depart="72.00" departLane="13632858#1_0" departPos="5.10" departSpeed="0.00" departDelay="2.00" arrival="100.00" arrivalLane="15219120#0_0" arrivalPos="110.13" arrivalSpeed="13.49" duration="28.00" routeLength="259.90" waitingTime="0.00" waitingCount="0" stopTime="0.00" timeLoss="7.19" rerouteNo="0" devices="tripinfo_70" vType="autonomous1" speedFactor="1.01" vaporized=""/>
    <tripinfo id="56" depart="56.00" departLane="13637284#5_0" departPos="5.10" departSpeed="0.00" departDelay="0.00" arrival="103.00" arrivalLane="-22883757#0_0" arrivalPos="104.24" arrivalSpeed="12.48" duration="47.00" routeLength="368.39" waitingTime="2.00" waitingCount="1" stopTime="0.00" timeLoss="16.00" rerouteNo="0" devices="tripinfo_56" vType="autonomous1" speedFactor="0.93" vaporized=""/>
    <tripinfo id="11" depart="11.00" departLane="-831851224#1_0" departPos="5.10" departSpeed="0.00" departDelay="0.00" arrival="109.00" arrivalLane="-22650820#1_0" arrivalPos="201.00" arrivalSpeed="12.64" duration="98.00" routeLength="662.08" waitingTime="0.00" waitingCount="0" stopTime="16.00" timeLoss="19.41" rerouteNo="0" devices="tripinfo_11" vType="autonomous1" speedFactor="0.93" vaporized=""/>
    <tripinfo id="31" depart="31.00" departLane="14360093#1_0" departPos="5.10" departSpeed="0.00" departDelay="0.00" arrival="118.00" arrivalLane="22885405#8_0" arrivalPos="27.28" arrivalSpeed="13.69" duration="87.00" routeLength="904.42" waitingTime="0.00" waitingCount="0" stopTime="0.00" timeLoss="18.54" rerouteNo="0" devices="tripinfo_31" vType="autonomous1" speedFactor="1.03" vaporized=""/>
