<?xml version="1.0" encoding="UTF-8"?>

<!-- generated on 2025-06-01 12:39:52 by 
<Configuration xmlns:xsi="http://www.w3.org/2001/XMLSchema-instance" xsi:noNamespaceSchemaLocation="http://sumo.dlr.de/xsd/Configuration.xsd">

    <input>
        <net-file value="swansea/swansea.net.xml"/>
        <route-files value="swansea/routes.rou.xml"/>
        <additional-files value="swansea/vtypes.add.xml"/>
    </input>

    <output>
        <tripinfo-output value="swansea/tripinfos.xml"/>
    </output>

    <report>
        <log value="swansea/sumo_log.txt"/>
        <no-step-log value="true"/>
    </report>

    <gui_only>
        <gui-settings-file value="swansea/settings.gui.xml"/>
    </gui_only>

</Configuration>
-->

<tripinfos xmlns:xsi="http://www.w3.org/2001/XMLSchema-instance" xsi:noNamespaceSchemaLocation="http://sumo.dlr.de/xsd/tripinfo_file.xsd">
    <tripinfo id="25" depart="25.00" departLane="-957264362#2_0" departPos="0.20" departSpeed="0.00" departDelay="0.00" arrival="36.00" arrivalLane="-23029167#1_0" arrivalPos="37.71" arrivalSpeed="13.34" duration="11.00" routeLength="102.99" waitingTime="0.00" waitingCount="0" stopTime="0.00" timeLoss="2.41" rerouteNo="0" devices="tripinfo_25" vType="autonomous1" speedFactor="0.99" vaporized=""/>
    <tripinfo id="39" depart="39.00" departLane="-27390599#2_0" departPos="5.10" departSpeed="0.00" departDelay="0.00" arrival="56.00" arrivalLane="-27390597#3_0" arrivalPos="15.12" arrivalSpeed="13.68" duration="17.00" routeLength="169.44" waitingTime="0.00" waitingCount="0" stopTime="0.00" timeLoss="4.17" rerouteNo="0" devices="tripinfo_39" vType="autonomous1" speedFactor="1.06" vaporized=""/>
    <tripinfo id="2" depart="2.00" departLane="23583312#1_0" departPos="5.10" departSpeed="0.00" departDelay="0.00" arrival="66.00" arrivalLane="22885401#1_0" arrivalPos="149.47" arrivalSpeed="15.62" duration="64.00" routeLength="757.95" waitingTime="0.00" waitingCount="0" stopTime="0.00" timeLoss="20.02" rerouteNo="0" devices="tripinfo_2" vType="autonomous1" speedFactor="1.20" vaporized=""/>
    <tripinfo id="79" depart="79.00" departLane="-23160026#4_0" departPos="5.10" departSpeed="0.00" departDelay="0.00" arrival="83.00" arrivalLane="-23160026#3_0" arrivalPos="0.20" arrivalSpeed="8.54" duration="4.00" routeLength="20.26" waitingTime="0.00" waitingCount="0" stopTime="0.00" timeLoss="2.57" rerouteNo="0" devices="tripinfo_79" vType="autonomous1" speedFactor="1.14" vaporized=""/>
    <tripinfo id="48" depart="48.00" departLane="957264361#0_0" departPos="0.20" departSpeed="0.00" departDelay="0.00" arrival="84.00" arrivalLane="14029231_0" arrivalPos="11.00" arrivalSpeed="13.74" duration="36.00" routeLength="449.42" waitingTime="0.00" waitingCount="0" stopTime="0.00" timeLoss="11.91" rerouteNo="0" devices="tripinfo_48" vType="autonomous1" speedFactor="1.12" vaporized=""/>
</tripinfos>
