<?xml version="1.0" encoding="UTF-8"?>

<!-- generated on 2025-04-30 19:17:09 by 
<Configuration xmlns:xsi="http://www.w3.org/2001/XMLSchema-instance" xsi:noNamespaceSchemaLocation="http://sumo.dlr.de/xsd/Configuration.xsd">

    <input>
        <net-file value="bologna/acosta/acosta_buslanes.net.xml"/>
        <route-files value="bologna/acosta/acosta.rou.xml"/>
        <additional-files value="bologna/acosta/acosta_vtypes.add.xml,bologna/acosta/acosta_detectors.add.xml,bologna/acosta/acosta_tls.add.xml"/>
    </input>

    <output>
        <tripinfo-output value="bologna/acosta/tripinfos.xml"/>
    </output>

    <report>
        <log value="bologna/acosta/sumo_log.txt"/>
        <no-step-log value="true"/>
    </report>

    <gui_only>
        <gui-settings-file value="bologna/acosta/settings.gui.xml"/>
    </gui_only>

</Configuration>
-->

<tripinfos xmlns:xsi="http://www.w3.org/2001/XMLSchema-instance" xsi:noNamespaceSchemaLocation="http://sumo.dlr.de/xsd/tripinfo_file.xsd">
    <tripinfo id="Audinot_7_0" depart="0.00" departLane="131_0" departPos="0.00" departSpeed="0.00" departDelay="0.00" arrival="85.00" arrivalLane="209_0" arrivalPos="395.59" arrivalSpeed="12.90" duration="85.00" routeLength="873.23" waitingTime="0.00" waitingCount="0" stopTime="5.00" timeLoss="13.51" rerouteNo="0" devices="tripinfo_Audinot_7_0" vType="autonomous1" speedFactor="0.98" vaporized=""/>
    <tripinfo id="Silvani_11_0" depart="0.00" departLane="203[0]_0" departPos="0.00" departSpeed="0.00" departDelay="0.00" arrival="85.00" arrivalLane="114_0" arrivalPos="692.70" arrivalSpeed="14.08" duration="85.00" routeLength="1114.25" waitingTime="0.00" waitingCount="0" stopTime="0.00" timeLoss="7.22" rerouteNo="0" devices="tripinfo_Silvani_11_0" vType="autonomous1" speedFactor="1.05" vaporized=""/>
    <tripinfo id="Pepoli_8_16" depart="27.00" departLane="210_0" departPos="0.00" departSpeed="0.00" departDelay="0.00" arrival="88.00" arrivalLane="134b_0" arrivalPos="156.17" arrivalSpeed="13.64" duration="61.00" routeLength="692.71" waitingTime="0.00" waitingCount="0" stopTime="0.00" timeLoss="10.32" rerouteNo="0" devices="tripinfo_Pepoli_8_16" vType="autonomous1" speedFactor="1.02" vaporized=""/>
    <tripinfo id="Pepoli_8_21" depart="37.00" departLane="210_0" departPos="0.00" departSpeed="0.00" departDelay="1.00" arrival="96.00" arrivalLane="134b_0" arrivalPos="156.17" arrivalSpeed="13.01" duration="59.00" routeLength="692.71" waitingTime="0.00" waitingCount="0" stopTime="0.00" timeLoss="8.81" rerouteNo="0" devices="tripinfo_Pepoli_8_21" vType="autonomous1" speedFactor="1.02" vaporized=""/>
    <tripinfo id="Pepoli_8_23" depart="39.00" departLane="210_0" departPos="0.00" departSpeed="0.00" departDelay="0.00" arrival="100.00" arrivalLane="134b_0" arrivalPos="156.17" arrivalSpeed="13.44" duration="61.00" routeLength="692.71" waitingTime="0.00" waitingCount="0" stopTime="0.00" timeLoss="8.04" rerouteNo="0" devices="tripinfo_Pepoli_8_23" vType="autonomous1" speedFactor="0.98" vaporized=""/>
    <tripinfo id="Togliatti_2_8" depart="11.00" departLane="85_0" departPos="0.00" departSpeed="0.00" departDelay="0.00" arrival="101.00" arrivalLane="77[1][1]_0" arrivalPos="463.98" arrivalSpeed="14.90" duration="90.00" routeLength="1145.48" waitingTime="0.00" waitingCount="0" stopTime="0.00" timeLoss="12.36" rerouteNo="0" devices="tripinfo_Togliatti_2_8" vType="autonomous1" speedFactor="1.10" vaporized=""/>
    <tripinfo id="Pepoli_8_25" depart="42.00" departLane="210_0" departPos="0.00" departSpeed="0.00" departDelay="0.00" arrival="101.00" arrivalLane="134b_0" arrivalPos="156.17" arrivalSpeed="15.10" duration="59.00" routeLength="692.71" waitingTime="0.00" waitingCount="0" stopTime="0.00" timeLoss="13.22" rerouteNo="0" devices="tripinfo_Pepoli_8_25" vType="autonomous1" speedFactor="1.12" vaporized=""/>
    <tripinfo id="Silvani_11_1" depart="3.00" departLane="203[0]_0" departPos="0.00" departSpeed="0.00" departDelay="1.00" arrival="106.00" arrivalLane="114_0" arrivalPos="692.70" arrivalSpeed="12.79" duration="103.00" routeLength="1114.25" waitingTime="0.00" waitingCount="0" stopTime="5.00" timeLoss="10.30" rerouteNo="0" devices="tripinfo_Silvani_11_1" vType="autonomous1" speedFactor="0.92" vaporized=""/>
    <tripinfo id="Togliatti_12_24" depart="34.00" departLane="85_2" departPos="0.00" departSpeed="0.00" departDelay="0.00" arrival="108.00" arrivalLane="136_0" arrivalPos="186.20" arrivalSpeed="14.58" duration="74.00" routeLength="909.95" waitingTime="0.00" waitingCount="0" stopTime="0.00" timeLoss="11.19" rerouteNo="0" devices="tripinfo_Togliatti_12_24" vType="autonomous1" speedFactor="1.08" vaporized=""/>
    <tripinfo id="Costa_12_0" depart="0.00" departLane="78[0]_0" departPos="0.00" departSpeed="0.00" departDelay="0.00" arrival="113.00" arrivalLane="136_0" arrivalPos="186.20" arrivalSpeed="14.30" duration="113.00" routeLength="1416.45" waitingTime="0.00" waitingCount="0" stopTime="0.00" timeLoss="16.47" rerouteNo="0" devices="tripinfo_Costa_12_0" vType="autonomous1" speedFactor="1.08" vaporized=""/>
    <tripinfo id="Costa_1_2" depart="6.00" departLane="78[0]_0" departPos="0.00" departSpeed="0.00" departDelay="1.00" arrival="114.00" arrivalLane="86_0" arrivalPos="321.19" arrivalSpeed="12.96" duration="108.00" routeLength="1191.74" waitingTime="6.00" waitingCount="1" stopTime="0.00" timeLoss="21.46" rerouteNo="0" devices="tripinfo_Costa_1_2" vType="autonomous1" speedFactor="1.01" vaporized=""/>
    <tripinfo id="Costa_1_4" depart="12.00" departLane="78[0]_0" departPos="0.00" departSpeed="0.00" departDelay="2.00" arrival="114.00" arrivalLane="86_1" arrivalPos="321.19" arrivalSpeed="12.77" duration="102.00" routeLength="1185.38" waitingTime="0.00" waitingCount="0" stopTime="0.00" timeLoss="13.71" rerouteNo="0" devices="tripinfo_Costa_1_4" vType="autonomous1" speedFactor="0.99" vaporized=""/>
    <tripinfo id="Pepoli_8_28" depart="48.00" departLane="210_0" departPos="0.00" departSpeed="0.00" departDelay="0.00" arrival="114.00" arrivalLane="134b_0" arrivalPos="156.17" arrivalSpeed="11.59" duration="66.00" routeLength="692.71" waitingTime="0.00" waitingCount="0" stopTime="0.00" timeLoss="8.13" rerouteNo="0" devices="tripinfo_Pepoli_8_28" vType="autonomous1" speedFactor="0.89" vaporized=""/>
    <tripinfo id="Costa_12_1" depart="3.00" departLane="78[0]_0" departPos="0.00" departSpeed="0.00" departDelay="1.00" arrival="116.00" arrivalLane="136_0" arrivalPos="186.20" arrivalSpeed="14.74" duration="113.00" routeLength="1416.45" waitingTime="0.00" waitingCount="0" stopTime="0.00" timeLoss="16.41" rerouteNo="0" devices="tripinfo_Costa_12_1" vType="autonomous1" speedFactor="1.09" vaporized=""/>
    <tripinfo id="Vittorio_Veneto_1_4" depart="18.00" departLane="224[0]_0" departPos="0.00" departSpeed="0.00" departDelay="0.00" arrival="121.00" arrivalLane="86_0" arrivalPos="321.19" arrivalSpeed="12.65" duration="103.00" routeLength="1142.43" waitingTime="1.00" waitingCount="1" stopTime="0.00" timeLoss="18.60" rerouteNo="0" devices="tripinfo_Vittorio_Veneto_1_4" vType="autonomous1" speedFactor="1.00" vaporized=""/>
    <tripinfo id="Silvani_7_2" depart="4.00" departLane="203[0]_1" departPos="0.00" departSpeed="0.00" departDelay="0.00" arrival="128.00" arrivalLane="209_0" arrivalPos="395.59" arrivalSpeed="13.74" duration="124.00" routeLength="1458.40" waitingTime="0.00" waitingCount="0" stopTime="9.00" timeLoss="14.12" rerouteNo="0" devices="tripinfo_Silvani_7_2" vType="autonomous1" speedFactor="1.04" vaporized=""/>
    <tripinfo id="Costa_12_3" depart="9.00" departLane="78[0]_0" departPos="0.00" departSpeed="0.00" departDelay="2.00" arrival="134.00" arrivalLane="136_0" arrivalPos="186.20" arrivalSpeed="12.85" duration="125.00" routeLength="1416.45" waitingTime="0.00" waitingCount="0" stopTime="0.00" timeLoss="20.63" rerouteNo="0" devices="tripinfo_Costa_12_3" vType="autonomous1" speedFactor="1.01" vaporized=""/>
    <tripinfo id="Costa_12_7" depart="18.00" departLane="78[0]_0" departPos="0.00" departSpeed="0.00" departDelay="0.00" arrival="135.00" arrivalLane="136_0" arrivalPos="186.20" arrivalSpeed="14.41" duration="117.00" routeLength="1416.45" waitingTime="0.00" waitingCount="0" stopTime="0.00" timeLoss="22.66" rerouteNo="0" devices="tripinfo_Costa_12_7" vType="autonomous1" speedFactor="1.10" vaporized=""/>
    <tripinfo id="Silvani_11_8" depart="18.00" departLane="203[0]_0" departPos="0.00" departSpeed="0.00" departDelay="0.00" arrival="135.00" arrivalLane="114_0" arrivalPos="692.70" arrivalSpeed="12.69" duration="117.00" routeLength="1114.25" waitingTime="13.00" waitingCount="1" stopTime="4.00" timeLoss="29.04" rerouteNo="0" devices="tripinfo_Silvani_11_8" vType="autonomous1" speedFactor="0.96" vaporized=""/>
    <tripinfo id="Costa_3_21" depart="57.00" departLane="78[0]_0" departPos="0.00" departSpeed="0.00" departDelay="3.00" arrival="136.00" arrivalLane="14_0" arrivalPos="77.26" arrivalSpeed="12.53" duration="79.00" routeLength="850.23" waitingTime="0.00" waitingCount="0" stopTime="0.00" timeLoss="10.44" rerouteNo="0" devices="tripinfo_Costa_3_21" vType="autonomous1" speedFactor="0.91" vaporized=""/>
    <tripinfo id="Silvani_11_9" depart="21.00" departLane="203[0]_0" departPos="0.00" departSpeed="0.00" departDelay="0.00" arrival="143.00" arrivalLane="114_0" arrivalPos="692.70" arrivalSpeed="12.76" duration="122.00" routeLength="1114.25" waitingTime="14.00" waitingCount="4" stopTime="3.00" timeLoss="34.91" rerouteNo="0" devices="tripinfo_Silvani_11_9" vType="autonomous1" speedFactor="0.96" vaporized=""/>
    <tripinfo id="Pepoli_3_0" depart="0.00" departLane="210_2" departPos="0.00" departSpeed="0.00" departDelay="0.00" arrival="146.00" arrivalLane="14_0" arrivalPos="77.26" arrivalSpeed="16.03" duration="146.00" routeLength="1941.55" waitingTime="0.00" waitingCount="0" stopTime="6.00" timeLoss="21.73" rerouteNo="0" devices="tripinfo_Pepoli_3_0" vType="autonomous1" speedFactor="1.20" vaporized=""/>
    <tripinfo id="Turati_3_2" depart="69.00" departLane="195_0" departPos="0.00" departSpeed="0.00" departDelay="0.00" arrival="149.00" arrivalLane="14_0" arrivalPos="77.26" arrivalSpeed="13.02" duration="80.00" routeLength="947.57" waitingTime="0.00" waitingCount="0" stopTime="0.00" timeLoss="11.20" rerouteNo="0" devices="tripinfo_Turati_3_2" vType="autonomous1" speedFactor="1.01" vaporized=""/>
    <tripinfo id="Pepoli_10_10" depart="17.00" departLane="210_0" departPos="0.00" departSpeed="0.00" departDelay="0.00" arrival="150.00" arrivalLane="204[1][1]_1" arrivalPos="435.51" arrivalSpeed="15.01" duration="133.00" routeLength="1470.65" waitingTime="15.00" waitingCount="4" stopTime="0.00" timeLoss="41.63" rerouteNo="0" devices="tripinfo_Pepoli_10_10" vType="autonomous1" speedFactor="1.17" vaporized=""/>
    <tripinfo id="Costa_12_9" depart="24.00" departLane="78[0]_0" departPos="0.00" departSpeed="0.00" departDelay="1.00" arrival="152.00" arrivalLane="136_0" arrivalPos="186.20" arrivalSpeed="13.20" duration="128.00" routeLength="1416.45" waitingTime="2.00" waitingCount="2" stopTime="1.00" timeLoss="24.70" rerouteNo="0" devices="tripinfo_Costa_12_9" vType="autonomous1" speedFactor="1.02" vaporized=""/>
    <tripinfo id="Costa_1_15" depart="39.00" departLane="78[0]_0" departPos="0.00" departSpeed="0.00" departDelay="0.00" arrival="154.00" arrivalLane="86_0" arrivalPos="321.19" arrivalSpeed="13.35" duration="115.00" routeLength="1188.91" waitingTime="5.00" waitingCount="1" stopTime="0.00" timeLoss="26.91" rerouteNo="0" devices="tripinfo_Costa_1_15" vType="autonomous1" speedFactor="0.99" vaporized=""/>
    <tripinfo id="Costa_1_19" depart="51.00" departLane="78[0]_0" departPos="0.00" departSpeed="0.00" departDelay="2.00" arrival="155.00" arrivalLane="86_1" arrivalPos="321.19" arrivalSpeed="12.16" duration="104.00" routeLength="1185.38" waitingTime="0.00" waitingCount="0" stopTime="0.00" timeLoss="12.77" rerouteNo="0" devices="tripinfo_Costa_1_19" vType="autonomous1" speedFactor="0.97" vaporized=""/>
    <tripinfo id="Silvani_11_12" depart="28.00" departLane="203[0]_0" departPos="0.00" departSpeed="0.00" departDelay="0.00" arrival="158.00" arrivalLane="114_0" arrivalPos="692.70" arrivalSpeed="13.77" duration="130.00" routeLength="1114.25" waitingTime="21.00" waitingCount="7" stopTime="0.00" timeLoss="50.20" rerouteNo="0" devices="tripinfo_Silvani_11_12" vType="autonomous1" speedFactor="1.01" vaporized=""/>
    <tripinfo id="Costa_1_17" depart="45.00" departLane="78[0]_0" departPos="0.00" departSpeed="0.00" departDelay="1.00" arrival="161.00" arrivalLane="86_1" arrivalPos="321.19" arrivalSpeed="14.05" duration="116.00" routeLength="1191.74" waitingTime="6.00" waitingCount="2" stopTime="0.00" timeLoss="30.91" rerouteNo="0" devices="tripinfo_Costa_1_17" vType="autonomous1" speedFactor="1.04" vaporized=""/>
    <tripinfo id="Pepoli_10_4" depart="6.00" departLane="210_0" departPos="0.00" departSpeed="0.00" departDelay="0.00" arrival="162.00" arrivalLane="204[1][1]_0" arrivalPos="435.51" arrivalSpeed="11.30" duration="156.00" routeLength="1470.65" waitingTime="5.00" waitingCount="3" stopTime="7.00" timeLoss="29.63" rerouteNo="0" devices="tripinfo_Pepoli_10_4" vType="autonomous1" speedFactor="0.89" vaporized=""/>
    <tripinfo id="Togliatti_12_48" depart="68.00" departLane="85_2" departPos="0.00" departSpeed="0.00" departDelay="0.00" arrival="163.00" arrivalLane="136_0" arrivalPos="186.20" arrivalSpeed="12.80" duration="95.00" routeLength="909.95" waitingTime="10.00" waitingCount="1" stopTime="0.00" timeLoss="25.17" rerouteNo="0" devices="tripinfo_Togliatti_12_48" vType="autonomous1" speedFactor="0.97" vaporized=""/>
    <tripinfo id="Pepoli_8_44" depart="75.00" departLane="210_0" departPos="0.00" departSpeed="0.00" departDelay="0.00" arrival="164.00" arrivalLane="134b_0" arrivalPos="156.17" arrivalSpeed="11.36" duration="89.00" routeLength="692.71" waitingTime="7.00" waitingCount="2" stopTime="0.00" timeLoss="31.24" rerouteNo="0" devices="tripinfo_Pepoli_8_44" vType="autonomous1" speedFactor="0.89" vaporized=""/>
    <tripinfo id="Silvani_11_17" depart="40.00" departLane="203[0]_0" departPos="0.00" departSpeed="0.00" departDelay="0.00" arrival="165.00" arrivalLane="114_2" arrivalPos="692.70" arrivalSpeed="13.52" duration="125.00" routeLength="1114.25" waitingTime="11.00" waitingCount="3" stopTime="0.00" timeLoss="46.34" rerouteNo="0" devices="tripinfo_Silvani_11_17" vType="autonomous1" speedFactor="1.02" vaporized=""/>
    <tripinfo id="Pepoli_8_48" depart="82.00" departLane="210_0" departPos="0.00" departSpeed="0.00" departDelay="0.00" arrival="165.00" arrivalLane="134b_0" arrivalPos="156.17" arrivalSpeed="13.60" duration="83.00" routeLength="692.71" waitingTime="6.00" waitingCount="2" stopTime="0.00" timeLoss="32.81" rerouteNo="0" devices="tripinfo_Pepoli_8_48" vType="autonomous1" speedFactor="1.01" vaporized=""/>
</tripinfos>
