<?xml version="1.0" encoding="UTF-8"?>

<!-- generated on 2025-02-21 17:34:28 by Eclipse SUMO GUI Version 1.22.0
<sumoConfiguration xmlns:xsi="http://www.w3.org/2001/XMLSchema-instance" xsi:noNamespaceSchemaLocation="http://sumo.dlr.de/xsd/sumoConfiguration.xsd">

    <input>
        <net-file value="bologna/joined/joined_buslanes.net.xml"/>
        <route-files value="bologna/joined/joined.rou.xml,bologna/joined/joined_busses.rou.xml"/>
        <additional-files value="bologna/joined/joined_bus_stops.add.xml,bologna/joined/joined_detectors.add.xml,bologna/joined/joined_vtypes.add.xml,bologna/joined/joined_tls.add.xml"/>
    </input>

    <output>
        <tripinfo-output value="bologna/joined/tripinfos.xml"/>
        <save-state.prefix value="bologna/joined/state"/>
    </output>

    <report>
        <log value="bologna/joined/sumo_log.txt"/>
        <no-step-log value="true"/>
    </report>

    <emissions>
        <phemlight-path value="bologna/joined/./PHEMlight/"/>
    </emissions>

    <traci_server>
        <remote-port value="43963"/>
    </traci_server>

</sumoConfiguration>
-->

<tripinfos xmlns:xsi="http://www.w3.org/2001/XMLSchema-instance" xsi:noNamespaceSchemaLocation="http://sumo.dlr.de/xsd/tripinfo_file.xsd">
</tripinfos>
